 Q-Chem 5.4, Q-Chem, Inc., Pleasanton, CA (2021)
 Q-Chem 5.4.1 for Intel X86 EM64T Linux

User input:
--------------------------------------------------------------
$molecule
0 1
C       -13.5946311143    3.0910607070   -0.5782273372
C        13.5726781881   -3.0339923386    0.1158954866
C       -14.3677354555    3.3662584172    0.7251649509
C        14.3389883389   -3.2800237476    1.4288941497
C       -12.2908826453    3.8335537234   -0.6815599148
C        12.2717911407   -3.7823835004    0.0182623661
C       -15.5909283717    2.5093303486    0.8403752752
C        15.5578011677   -2.4154272890    1.5344854064
C       -16.8804157777    2.8914813286    0.8555685107
C        16.8491103041   -2.7913329848    1.5508937511
C       -12.3842032862    5.3274455563   -0.7398061508
C        12.3681729671   -5.2772318645    0.0084621489
C       -11.1215500419    3.1446616642   -0.6972357193
C        11.1015500578   -3.0971727513   -0.0386641193
C       -17.9801792723    1.8746779712    0.9636960345
C       -17.3526926184    4.3128724823    0.7730294018
C        17.9445812200   -1.7686817612    1.6471928277
C        17.3274699291   -4.2113448150    1.4807342576
C        -9.7873377780    3.6919824275   -0.7577927031
C         9.7700095175   -3.6503124955   -0.1060137723
C        -8.6703210769    2.9156730142   -0.7487059336
C         8.6512736781   -2.8783148076   -0.1600607847
C        -7.3030798506    3.3885643319   -0.7847306289
C         7.2869207919   -3.3578751985   -0.2144146105
C        -7.0562637306    4.8659039347   -0.8462197077
C         7.0457998897   -4.8373494480   -0.2068804140
C        -6.2997314255    2.4540333518   -0.7526485116
C         6.2810238265   -2.4270487723   -0.2668314321
C        -4.8871811899    2.6881651991   -0.7573934539
C         4.8702368038   -2.6664549061   -0.3170581833
C        -3.9721307062    1.6752375919   -0.7117591387
C         3.9532059598   -1.6558397104   -0.3731089363
C        -2.5387885730    1.8284902587   -0.6959813322
C         2.5209688419   -1.8126704716   -0.4203341838
C        -1.7709193523    0.6897149578   -0.6363189052
C         1.7514142755   -0.6750648472   -0.4800078527
C        -1.9614962899    3.2120786415   -0.7394921382
C         1.9466246781   -3.1980151478   -0.4022102370
C        -0.3470671568    0.6014224111   -0.5943798127
C         0.3277416791   -0.5883288685   -0.5312251529
H       -13.4078499574    2.0079488606   -0.6634304894
H       -14.2448696335    3.3727844595   -1.4276478921
H        13.3832680282   -1.9534677712    0.0070401360
H        14.2291667585   -3.3309302845   -0.7236082841
H       -13.6939466700    3.1481867165    1.5743575235
H       -14.6218284396    4.4345478875    0.7931876892
H        13.6596444064   -3.0487953522    2.2700762114
H        14.5979103190   -4.3454921286    1.5192224465
H       -15.3919266965    1.4305119229    0.9018933140
H        15.3536687367   -1.3370107259    1.5855310809
H       -13.1684366166    5.6363775107   -1.4514881206
H       -12.6753357528    5.7459481531    0.2396305286
H       -11.4443675849    5.8107012888   -1.0383506263
H        13.1658824975   -5.6069764474   -0.6784760992
H        12.6404042451   -5.6651589008    1.0057210619
H        11.4347667106   -5.7707274158   -0.2934724623
H       -11.1831707114    2.0500893976   -0.6494419790
H        11.1601032334   -2.0014778869   -0.0263952517
H       -18.6069446389    2.0605665070    1.8540200668
H       -17.5890637629    0.8481621886    1.0267990181
H       -18.6587130093    1.9335968418    0.0942894619
H       -17.9315894688    4.5824820571    1.6739953436
H       -18.0406184735    4.4406256107   -0.0810289069
H       -16.5384856066    5.0417094205    0.6643031502
H        18.5748154521   -1.9447041009    2.5370245944
H        17.5491374575   -0.7434059890    1.7030241168
H        18.6206032902   -1.8318359370    0.7761275161
H        17.9083765389   -4.4704431869    2.3834845696
H        18.0151036943   -4.3437354270    0.6271522519
H        16.5161958385   -4.9444710232    1.3791154912
H        -9.6785561597    4.7795792885   -0.8005907631
H         9.6645609312   -4.7390499830   -0.1045482280
H        -8.7980573757    1.8270170477   -0.6997815295
H         8.7748643048   -1.7881036916   -0.1580273730
H        -7.4954794674    5.3746888955    0.0279726156
H        -7.5326739199    5.3064244658   -1.7376982073
H        -5.9895210786    5.1199332734   -0.8788548126
H         7.4665257226   -5.2992929737    0.7017494448
H         7.5438520505   -5.3208134921   -1.0636292199
H         5.9808278415   -5.0970986290   -0.2503982721
H        -6.6083965335    1.4019213738   -0.7105571177
H         6.5858178438   -1.3729537713   -0.2695139378
H        -4.5312614597    3.7217206291   -0.7919168875
H         4.5172685259   -3.7015900910   -0.3075588311
H        -4.3466873629    0.6446148057   -0.6771696926
H         4.3252031140   -0.6237660759   -0.3840325231
H        -2.3089157809   -0.2660782476   -0.6125956245
H         2.2877727532    0.2819098598   -0.4889696230
H        -2.3068986849    3.8094382314    0.1204712488
H        -2.2925783633    3.7462458519   -1.6452681809
H        -0.8647614176    3.2171195972   -0.7311238823
H         2.2613846697   -3.7413558566    0.5039217648
H         2.3102534293   -3.7851017799   -1.2617430782
H         0.8503045618   -3.2054696590   -0.4325936937
H         0.2425566306    1.5245835855   -0.6085451711
H        -0.2614474917   -1.5118112432   -0.5186847562
$end

$comment
Lyc ES
$end

$rem
JOBTYPE SP
BASIS cc-pVDZ
METHOD TPSS
CIS_N_ROOTS 15
cis_singlets true
cis_triplets false
state_analysis true
molden_format true
nto_pairs 2
SOLVENT_METHOD smd
MEM_TOTAL 64000
THREADS 32
$end

$smx
solvent methanol
$end

--------------------------------------------------------------

             Standard Nuclear Orientation (Angstroms)
    I     Atom           X                Y                Z
 ----------------------------------------------------------------
    1      C     -13.5946311143     3.0910607070    -0.5782273372
    2      C      13.5726781881    -3.0339923386     0.1158954866
    3      C     -14.3677354555     3.3662584172     0.7251649509
    4      C      14.3389883389    -3.2800237476     1.4288941497
    5      C     -12.2908826453     3.8335537234    -0.6815599148
    6      C      12.2717911407    -3.7823835004     0.0182623661
    7      C     -15.5909283717     2.5093303486     0.8403752752
    8      C      15.5578011677    -2.4154272890     1.5344854064
    9      C     -16.8804157777     2.8914813286     0.8555685107
   10      C      16.8491103041    -2.7913329848     1.5508937511
   11      C     -12.3842032862     5.3274455563    -0.7398061508
   12      C      12.3681729671    -5.2772318645     0.0084621489
   13      C     -11.1215500419     3.1446616642    -0.6972357193
   14      C      11.1015500578    -3.0971727513    -0.0386641193
   15      C     -17.9801792723     1.8746779712     0.9636960345
   16      C     -17.3526926184     4.3128724823     0.7730294018
   17      C      17.9445812200    -1.7686817612     1.6471928277
   18      C      17.3274699291    -4.2113448150     1.4807342576
   19      C      -9.7873377780     3.6919824275    -0.7577927031
   20      C       9.7700095175    -3.6503124955    -0.1060137723
   21      C      -8.6703210769     2.9156730142    -0.7487059336
   22      C       8.6512736781    -2.8783148076    -0.1600607847
   23      C      -7.3030798506     3.3885643319    -0.7847306289
   24      C       7.2869207919    -3.3578751985    -0.2144146105
   25      C      -7.0562637306     4.8659039347    -0.8462197077
   26      C       7.0457998897    -4.8373494480    -0.2068804140
   27      C      -6.2997314255     2.4540333518    -0.7526485116
   28      C       6.2810238265    -2.4270487723    -0.2668314321
   29      C      -4.8871811899     2.6881651991    -0.7573934539
   30      C       4.8702368038    -2.6664549061    -0.3170581833
   31      C      -3.9721307062     1.6752375919    -0.7117591387
   32      C       3.9532059598    -1.6558397104    -0.3731089363
   33      C      -2.5387885730     1.8284902587    -0.6959813322
   34      C       2.5209688419    -1.8126704716    -0.4203341838
   35      C      -1.7709193523     0.6897149578    -0.6363189052
   36      C       1.7514142755    -0.6750648472    -0.4800078527
   37      C      -1.9614962899     3.2120786415    -0.7394921382
   38      C       1.9466246781    -3.1980151478    -0.4022102370
   39      C      -0.3470671568     0.6014224111    -0.5943798127
   40      C       0.3277416791    -0.5883288685    -0.5312251529
   41      H     -13.4078499574     2.0079488606    -0.6634304894
   42      H     -14.2448696335     3.3727844595    -1.4276478921
   43      H      13.3832680282    -1.9534677712     0.0070401360
   44      H      14.2291667585    -3.3309302845    -0.7236082841
   45      H     -13.6939466700     3.1481867165     1.5743575235
   46      H     -14.6218284396     4.4345478875     0.7931876892
   47      H      13.6596444064    -3.0487953522     2.2700762114
   48      H      14.5979103190    -4.3454921286     1.5192224465
   49      H     -15.3919266965     1.4305119229     0.9018933140
   50      H      15.3536687367    -1.3370107259     1.5855310809
   51      H     -13.1684366166     5.6363775107    -1.4514881206
   52      H     -12.6753357528     5.7459481531     0.2396305286
   53      H     -11.4443675849     5.8107012888    -1.0383506263
   54      H      13.1658824975    -5.6069764474    -0.6784760992
   55      H      12.6404042451    -5.6651589008     1.0057210619
   56      H      11.4347667106    -5.7707274158    -0.2934724623
   57      H     -11.1831707114     2.0500893976    -0.6494419790
   58      H      11.1601032334    -2.0014778869    -0.0263952517
   59      H     -18.6069446389     2.0605665070     1.8540200668
   60      H     -17.5890637629     0.8481621886     1.0267990181
   61      H     -18.6587130093     1.9335968418     0.0942894619
   62      H     -17.9315894688     4.5824820571     1.6739953436
   63      H     -18.0406184735     4.4406256107    -0.0810289069
   64      H     -16.5384856066     5.0417094205     0.6643031502
   65      H      18.5748154521    -1.9447041009     2.5370245944
   66      H      17.5491374575    -0.7434059890     1.7030241168
   67      H      18.6206032902    -1.8318359370     0.7761275161
   68      H      17.9083765389    -4.4704431869     2.3834845696
   69      H      18.0151036943    -4.3437354270     0.6271522519
   70      H      16.5161958385    -4.9444710232     1.3791154912
   71      H      -9.6785561597     4.7795792885    -0.8005907631
   72      H       9.6645609312    -4.7390499830    -0.1045482280
   73      H      -8.7980573757     1.8270170477    -0.6997815295
   74      H       8.7748643048    -1.7881036916    -0.1580273730
   75      H      -7.4954794674     5.3746888955     0.0279726156
   76      H      -7.5326739199     5.3064244658    -1.7376982073
   77      H      -5.9895210786     5.1199332734    -0.8788548126
   78      H       7.4665257226    -5.2992929737     0.7017494448
   79      H       7.5438520505    -5.3208134921    -1.0636292199
   80      H       5.9808278415    -5.0970986290    -0.2503982721
   81      H      -6.6083965335     1.4019213738    -0.7105571177
   82      H       6.5858178438    -1.3729537713    -0.2695139378
   83      H      -4.5312614597     3.7217206291    -0.7919168875
   84      H       4.5172685259    -3.7015900910    -0.3075588311
   85      H      -4.3466873629     0.6446148057    -0.6771696926
   86      H       4.3252031140    -0.6237660759    -0.3840325231
   87      H      -2.3089157809    -0.2660782476    -0.6125956245
   88      H       2.2877727532     0.2819098598    -0.4889696230
   89      H      -2.3068986849     3.8094382314     0.1204712488
   90      H      -2.2925783633     3.7462458519    -1.6452681809
   91      H      -0.8647614176     3.2171195972    -0.7311238823
   92      H       2.2613846697    -3.7413558566     0.5039217648
   93      H       2.3102534293    -3.7851017799    -1.2617430782
   94      H       0.8503045618    -3.2054696590    -0.4325936937
   95      H       0.2425566306     1.5245835855    -0.6085451711
   96      H      -0.2614474917    -1.5118112432    -0.5186847562
 ----------------------------------------------------------------

   14   -1558.2446427473      7.25e-09  Convergence criterion met
 Total energy in the final basis set =    -1558.2566436904

         TDDFT/TDA Excitation Energies
 ---------------------------------------------------

 Excited state   1: excitation energy (eV) =    1.9497
 Total energy for state  1:                 -1558.18499434 au
    Multiplicity: Singlet
    Trans. Mom.: -0.1019 X   0.0382 Y  -0.0372 Z
    Strength   :     0.0006320591
    D(  147) --> V(    1) amplitude =  0.7669
    D(  148) --> V(    2) amplitude = -0.6411

 Excited state   2: excitation energy (eV) =    1.9578
 Total energy for state  2:                 -1558.18469429 au
    Multiplicity: Singlet
    Trans. Mom.: ******* X   4.0608 Y  -0.3433 Z
    Strength   :     6.0251024082
    D(  146) --> V(    1) amplitude = -0.2588
    D(  148) --> V(    1) amplitude =  0.9470

 Excited state   3: excitation energy (eV) =    2.5858
 Total energy for state  3:                 -1558.16161573 au
    Multiplicity: Singlet
    Trans. Mom.: -2.7904 X   1.4744 Y  -0.1106 Z
    Strength   :     0.6317576578
    D(  146) --> V(    1) amplitude =  0.8205
    D(  148) --> V(    3) amplitude =  0.4679

 Excited state   4: excitation energy (eV) =    2.6811
 Total energy for state  4:                 -1558.15811589 au
    Multiplicity: Singlet
    Trans. Mom.: -0.0009 X  -0.0031 Y  -0.1395 Z
    Strength   :     0.0012785678
    D(  145) --> V(    1) amplitude =  0.9690

 Excited state   5: excitation energy (eV) =    2.7384
 Total energy for state  5:                 -1558.15600869 au
    Multiplicity: Singlet
    Trans. Mom.:  0.7418 X  -0.1865 Y   0.0170 Z
    Strength   :     0.0392696512
    D(  144) --> V(    1) amplitude =  0.9610
    D(  148) --> V(    3) amplitude = -0.2223

 Excited state   6: excitation energy (eV) =    2.8121
 Total energy for state  6:                 -1558.15330217 au
    Multiplicity: Singlet
    Trans. Mom.: -3.0929 X   1.4769 Y  -0.1062 Z
    Strength   :     0.8101201042
    D(  147) --> V(    2) amplitude =  0.7836
    D(  148) --> V(    3) amplitude = -0.5709

 Excited state   7: excitation energy (eV) =    3.0535
 Total energy for state  7:                 -1558.14442995 au
    Multiplicity: Singlet
    Trans. Mom.: -0.0008 X  -0.0084 Y  -0.1624 Z
    Strength   :     0.0019775008
    D(  143) --> V(    1) amplitude =  0.6706
    D(  147) --> V(    1) amplitude =  0.4009
    D(  147) --> V(    3) amplitude = -0.2649
    D(  148) --> V(    2) amplitude =  0.4903

 Excited state   8: excitation energy (eV) =    3.2719
 Total energy for state  8:                 -1558.13640430 au
    Multiplicity: Singlet
    Trans. Mom.: -0.0008 X   0.0053 Y   0.1069 Z
    Strength   :     0.0009185190
    D(  143) --> V(    1) amplitude =  0.2624
    D(  146) --> V(    2) amplitude =  0.7844
    D(  147) --> V(    3) amplitude =  0.4812

 Excited state   9: excitation energy (eV) =    3.3985
 Total energy for state  9:                 -1558.13175207 au
    Multiplicity: Singlet
    Trans. Mom.:  0.0013 X  -0.0088 Y  -0.1328 Z
    Strength   :     0.0014750278
    D(  143) --> V(    1) amplitude = -0.5145
    D(  146) --> V(    2) amplitude =  0.3161
    D(  147) --> V(    1) amplitude =  0.2802
    D(  148) --> V(    2) amplitude =  0.3317
    D(  148) --> V(    4) amplitude =  0.6250

 Excited state  10: excitation energy (eV) =    3.5052
 Total energy for state 10:                 -1558.12783137 au
    Multiplicity: Singlet
    Trans. Mom.:  0.1782 X  -0.4360 Y   0.0277 Z
    Strength   :     0.0191171698
    D(  145) --> V(    2) amplitude =  0.9868

 Excited state  11: excitation energy (eV) =    3.5168
 Total energy for state 11:                 -1558.12740421 au
    Multiplicity: Singlet
    Trans. Mom.: -0.0029 X   0.0084 Y   0.1125 Z
    Strength   :     0.0010975632
    D(  144) --> V(    2) amplitude =  0.8700
    D(  147) --> V(    3) amplitude = -0.4153

 Excited state  12: excitation energy (eV) =    3.6366
 Total energy for state 12:                 -1558.12300225 au
    Multiplicity: Singlet
    Trans. Mom.:  0.3253 X   0.3214 Y  -0.0194 Z
    Strength   :     0.0186611508
    D(  142) --> V(    1) amplitude =  0.8932
    D(  143) --> V(    2) amplitude =  0.2253

 Excited state  13: excitation energy (eV) =    3.7117
 Total energy for state 13:                 -1558.12024258 au
    Multiplicity: Singlet
    Trans. Mom.: -0.0015 X  -0.0082 Y  -0.1667 Z
    Strength   :     0.0025333462
    D(  144) --> V(    2) amplitude =  0.4234
    D(  147) --> V(    1) amplitude =  0.3037
    D(  147) --> V(    3) amplitude =  0.5023
    D(  148) --> V(    2) amplitude =  0.3530
    D(  148) --> V(    4) amplitude = -0.4699

 Excited state  14: excitation energy (eV) =    4.0010
 Total energy for state 14:                 -1558.10960973 au
    Multiplicity: Singlet
    Trans. Mom.: -0.7160 X   0.5476 Y  -0.0340 Z
    Strength   :     0.0797567609
    D(  143) --> V(    2) amplitude = -0.8504
    D(  146) --> V(    3) amplitude = -0.2908
    D(  147) --> V(    4) amplitude =  0.3517

 Excited state  15: excitation energy (eV) =    4.0432
 Total energy for state 15:                 -1558.10805955 au
    Multiplicity: Singlet
    Trans. Mom.:  0.3548 X   0.4959 Y  -0.0295 Z
    Strength   :     0.0369134257
    D(  148) --> V(    5) amplitude = -0.9156

 ---------------------------------------------------

                    Orbital Energies (a.u.)
 --------------------------------------------------------------

 Alpha MOs
 -- Occupied --
-10.0044 -10.0044 -10.0032 -10.0032  -9.9993  -9.9993  -9.9972  -9.9968
 -9.9952  -9.9952  -9.9948  -9.9948  -9.9938  -9.9938  -9.9938  -9.9937
 -9.9934  -9.9934  -9.9925  -9.9925  -9.9921  -9.9920  -9.9917  -9.9917
 -9.9914  -9.9914  -9.9909  -9.9909  -9.9906  -9.9906  -9.9898  -9.9898
 -9.9876  -9.9876  -9.9871  -9.9871  -9.9867  -9.9867  -9.9800  -9.9800
 -0.7757  -0.7728  -0.7679  -0.7641  -0.7583  -0.7548  -0.7437  -0.7425
 -0.7290  -0.7131  -0.7052  -0.6918  -0.6842  -0.6714  -0.6677  -0.6454
 -0.6299  -0.6296  -0.6286  -0.6286  -0.6264  -0.6255  -0.6179  -0.6132
 -0.6046  -0.5780  -0.5627  -0.5524  -0.5393  -0.5201  -0.4984  -0.4931
 -0.4824  -0.4797  -0.4783  -0.4755  -0.4691  -0.4638  -0.4601  -0.4538
 -0.4364  -0.4286  -0.4255  -0.4211  -0.4187  -0.4160  -0.4083  -0.4069
 -0.3981  -0.3940  -0.3881  -0.3866  -0.3812  -0.3805  -0.3790  -0.3732
 -0.3724  -0.3718  -0.3696  -0.3691  -0.3668  -0.3650  -0.3629  -0.3621
 -0.3503  -0.3498  -0.3418  -0.3385  -0.3346  -0.3334  -0.3334  -0.3288
 -0.3287  -0.3284  -0.3251  -0.3232  -0.3216  -0.3215  -0.3188  -0.3185
 -0.3165  -0.3128  -0.3111  -0.3090  -0.3079  -0.3028  -0.3021  -0.2975
 -0.2944  -0.2940  -0.2938  -0.2931  -0.2908  -0.2900  -0.2822  -0.2819
 -0.2796  -0.2749  -0.2735  -0.2735  -0.2517  -0.2307  -0.2143  -0.2004
 -0.1989  -0.1895  -0.1680  -0.1463

                    Cartesian Multipole Moments
 -----------------------------------------------------------------
    Charge (ESU x 10^10)
                -0.0000
    Dipole Moment (Debye)
         X      -0.0117      Y       0.0167      Z       0.2968
       Tot       0.2975
    Quadrupole Moments (Debye-Ang)
        XX    -150.2305     XY     -43.9816     YY    -206.4903
        XZ       2.1154     YZ      -1.9837     ZZ    -261.0156

 Total job time:  2010.80s(wall), 12113.27s(cpu)
        *  Thank you very much for using Q-Chem.  Have a nice day.  *
