 Q-Chem 5.4, Q-Chem, Inc., Pleasanton, CA (2021)
 Q-Chem 5.4.1 for Intel X86 EM64T Linux

User input:
--------------------------------------------------------------
$molecule
0 1
O        11.2556877009    1.3252791884   -0.7248651144
O       -11.2805512239   -0.9372906212    1.0008985038
O        15.0472597816   -0.1734714874    0.2791145783
O       -15.4914999740   -1.2847883165    1.0492302224
C        11.5625444601    0.0347689395   -0.1807776403
C       -11.5635315159   -0.0549605124   -0.1007630884
C        12.1186608355    1.2750568868    0.4363573017
C       -12.0955453960    0.2213492343    1.2678124307
C        12.4333307322   -0.8416080688   -1.1002497313
C       -12.4614067482   -0.6771580104   -1.2007244630
C        13.5332479797    1.7361295053    0.1507359785
C       -13.5266121730   -0.1111425981    1.6068082186
C        13.6268951064   -0.0289867289   -1.6369619963
C       -13.9242536279   -0.7946472572   -0.7384928831
C        14.4186439988    0.7511152678   -0.6051843987
C       -14.1117798499   -1.1855530693    0.7150800164
C        11.5242704206    1.8591790012    1.6886988562
C       -11.4723437575    1.2557973859    2.1622616368
C        10.4128149313   -0.6631429448    0.4570003326
C       -10.3772234319    0.6962386242   -0.5946059031
C        11.5868128589   -1.2689109913   -2.3052096155
C        12.8962069346   -2.0969310924   -0.3499229885
C       -12.4516249435    0.1772045129   -2.4728105785
C       -11.8877645447   -2.0577641303   -1.5365742623
C         9.1300802180   -0.2859779348    0.2871857097
C        -9.1068382491    0.3662436693   -0.2875002449
C         7.9593061920   -0.9453604453    0.8448706100
C        -7.9089933758    1.0503035275   -0.7507062875
C         8.1621582196   -2.1448059297    1.7188794078
C        -8.0665170080    2.2359252224   -1.6526467050
C         6.7327114946   -0.4337940937    0.5227983557
C        -6.6999640728    0.5645039870   -0.3355752054
C         5.4438402903   -0.9199561819    0.9249320392
C        -5.3960357366    1.0637210183   -0.6670300802
C         4.2833531325   -0.3327275194    0.5149165576
C        -4.2498993978    0.4958396681   -0.1941921203
C         2.9468678285   -0.7582273071    0.8544237245
C        -2.9057787998    0.9310496209   -0.4893079941
C         2.7738239772   -1.9443828903    1.7550667328
C        -2.7142328862    2.1118261802   -1.3936828246
C         1.8972641115   -0.0504166731    0.3215010894
C        -1.8660940806    0.2316672553    0.0736532221
C         0.5005696304   -0.2920103509    0.5003345442
C        -0.4676516804    0.4744169806   -0.0885154828
H        13.4488693006    2.6741409890   -0.4242360889
H        14.0306645979    1.9998999265    1.0977622770
H       -13.5781072849   -0.4210631083    2.6644548548
H       -14.1387242665    0.8021486842    1.5103082431
H        13.2570962397    0.6960757687   -2.3797777344
H        14.3049150433   -0.7130215432   -2.1730713851
H       -14.4403564932   -1.5225972662   -1.3882384704
H       -14.4337264241    0.1753535937   -0.8802966099
H        15.1999617043    1.3272930768   -1.1351656615
H       -13.6077581937   -2.1473116157    0.9186004072
H        12.0660846005    1.4909663499    2.5743468644
H        11.6231077273    2.9569548886    1.6712470515
H        10.4619083331    1.6076566452    1.7989864185
H       -10.4290413343    1.4590225301    1.8904206638
H       -12.0394973506    2.1983409644    2.1071246047
H       -11.5017282431    0.9101641045    3.2080935499
H        10.6600419234   -1.5407165154    1.0597436760
H       -10.5875446737    1.5453201415   -1.2490044230
H        11.1681733030   -0.3946840334   -2.8298246753
H        12.2067116125   -1.8283699268   -3.0244653272
H        10.7511354161   -1.9197380075   -2.0035332373
H        12.0539521275   -2.7776800479   -0.1522546469
H        13.6261251450   -2.6518290426   -0.9610067307
H        13.3801526811   -1.8510187503    0.6043746937
H       -12.7406136173    1.2212244520   -2.2706852032
H       -13.1786857211   -0.2334890386   -3.1918123442
H       -11.4664569071    0.1802750543   -2.9638838025
H       -11.9630614914   -2.7488950652   -0.6843613012
H       -12.4318206602   -2.4997000955   -2.3865176753
H       -10.8247312041   -1.9848587892   -1.8190969445
H        15.5868344173    0.3431340406    0.8943755214
H       -15.8608636559   -2.0144946062    0.5317323858
H         8.9332873605    0.5957732558   -0.3329570230
H        -8.9450414896   -0.4918665814    0.3741286420
H         8.8044875732   -1.8969518920    2.5802352488
H         8.6764690044   -2.9498133311    1.1672302639
H         7.2211276644   -2.5528267564    2.1080502815
H        -8.6805544019    3.0162151581   -1.1726538633
H        -8.5889453028    1.9554681816   -2.5826772257
H        -7.1076125803    2.6896976191   -1.9317640240
H         6.7233665213    0.4498700895   -0.1275584754
H        -6.7203211106   -0.3118147406    0.3242478570
H         5.3955127556   -1.7982603321    1.5747959651
H        -5.3235313803    1.9330026362   -1.3262895232
H         4.3550567434    0.5438225386   -0.1409255621
H        -4.3399595665   -0.3741707344    0.4678755336
H         3.2138335095   -2.8489943309    1.3031022656
H         3.2947216842   -1.7878214912    2.7139711127
H         1.7215418961   -2.1590090085    1.9776459647
H        -3.2018416538    3.0089653122   -0.9776010005
H        -3.1769685818    1.9313133159   -2.3780646036
H        -1.6574981992    2.3525054731   -1.5609664309
H         2.1536626472    0.7992470743   -0.3233054056
H        -2.1320800188   -0.6161815782    0.7169710918
H         0.1824858818   -1.1300784792    1.1297210869
H        -0.1453239690    1.3109043227   -0.7178115870
$end

$comment
Violaxanthin geom opt
$end

$rem
JOBTYPE SP
BASIS cc-pVDZ
METHOD CAM-B3LYP
CIS_N_ROOTS 15
cis_singlets true
cis_triplets false
state_analysis true
molden_format true
nto_pairs 2
SOLVENT_METHOD smd
MEM_TOTAL 64000
THREADS 32
$end

$smx
solvent methanol
$end

--------------------------------------------------------------

             Standard Nuclear Orientation (Angstroms)
    I     Atom           X                Y                Z
 ----------------------------------------------------------------
    1      O      11.2556877009     1.3252791884    -0.7248651144
    2      O     -11.2805512239    -0.9372906212     1.0008985038
    3      O      15.0472597816    -0.1734714874     0.2791145783
    4      O     -15.4914999740    -1.2847883165     1.0492302224
    5      C      11.5625444601     0.0347689395    -0.1807776403
    6      C     -11.5635315159    -0.0549605124    -0.1007630884
    7      C      12.1186608355     1.2750568868     0.4363573017
    8      C     -12.0955453960     0.2213492343     1.2678124307
    9      C      12.4333307322    -0.8416080688    -1.1002497313
   10      C     -12.4614067482    -0.6771580104    -1.2007244630
   11      C      13.5332479797     1.7361295053     0.1507359785
   12      C     -13.5266121730    -0.1111425981     1.6068082186
   13      C      13.6268951064    -0.0289867289    -1.6369619963
   14      C     -13.9242536279    -0.7946472572    -0.7384928831
   15      C      14.4186439988     0.7511152678    -0.6051843987
   16      C     -14.1117798499    -1.1855530693     0.7150800164
   17      C      11.5242704206     1.8591790012     1.6886988562
   18      C     -11.4723437575     1.2557973859     2.1622616368
   19      C      10.4128149313    -0.6631429448     0.4570003326
   20      C     -10.3772234319     0.6962386242    -0.5946059031
   21      C      11.5868128589    -1.2689109913    -2.3052096155
   22      C      12.8962069346    -2.0969310924    -0.3499229885
   23      C     -12.4516249435     0.1772045129    -2.4728105785
   24      C     -11.8877645447    -2.0577641303    -1.5365742623
   25      C       9.1300802180    -0.2859779348     0.2871857097
   26      C      -9.1068382491     0.3662436693    -0.2875002449
   27      C       7.9593061920    -0.9453604453     0.8448706100
   28      C      -7.9089933758     1.0503035275    -0.7507062875
   29      C       8.1621582196    -2.1448059297     1.7188794078
   30      C      -8.0665170080     2.2359252224    -1.6526467050
   31      C       6.7327114946    -0.4337940937     0.5227983557
   32      C      -6.6999640728     0.5645039870    -0.3355752054
   33      C       5.4438402903    -0.9199561819     0.9249320392
   34      C      -5.3960357366     1.0637210183    -0.6670300802
   35      C       4.2833531325    -0.3327275194     0.5149165576
   36      C      -4.2498993978     0.4958396681    -0.1941921203
   37      C       2.9468678285    -0.7582273071     0.8544237245
   38      C      -2.9057787998     0.9310496209    -0.4893079941
   39      C       2.7738239772    -1.9443828903     1.7550667328
   40      C      -2.7142328862     2.1118261802    -1.3936828246
   41      C       1.8972641115    -0.0504166731     0.3215010894
   42      C      -1.8660940806     0.2316672553     0.0736532221
   43      C       0.5005696304    -0.2920103509     0.5003345442
   44      C      -0.4676516804     0.4744169806    -0.0885154828
   45      H      13.4488693006     2.6741409890    -0.4242360889
   46      H      14.0306645979     1.9998999265     1.0977622770
   47      H     -13.5781072849    -0.4210631083     2.6644548548
   48      H     -14.1387242665     0.8021486842     1.5103082431
   49      H      13.2570962397     0.6960757687    -2.3797777344
   50      H      14.3049150433    -0.7130215432    -2.1730713851
   51      H     -14.4403564932    -1.5225972662    -1.3882384704
   52      H     -14.4337264241     0.1753535937    -0.8802966099
   53      H      15.1999617043     1.3272930768    -1.1351656615
   54      H     -13.6077581937    -2.1473116157     0.9186004072
   55      H      12.0660846005     1.4909663499     2.5743468644
   56      H      11.6231077273     2.9569548886     1.6712470515
   57      H      10.4619083331     1.6076566452     1.7989864185
   58      H     -10.4290413343     1.4590225301     1.8904206638
   59      H     -12.0394973506     2.1983409644     2.1071246047
   60      H     -11.5017282431     0.9101641045     3.2080935499
   61      H      10.6600419234    -1.5407165154     1.0597436760
   62      H     -10.5875446737     1.5453201415    -1.2490044230
   63      H      11.1681733030    -0.3946840334    -2.8298246753
   64      H      12.2067116125    -1.8283699268    -3.0244653272
   65      H      10.7511354161    -1.9197380075    -2.0035332373
   66      H      12.0539521275    -2.7776800479    -0.1522546469
   67      H      13.6261251450    -2.6518290426    -0.9610067307
   68      H      13.3801526811    -1.8510187503     0.6043746937
   69      H     -12.7406136173     1.2212244520    -2.2706852032
   70      H     -13.1786857211    -0.2334890386    -3.1918123442
   71      H     -11.4664569071     0.1802750543    -2.9638838025
   72      H     -11.9630614914    -2.7488950652    -0.6843613012
   73      H     -12.4318206602    -2.4997000955    -2.3865176753
   74      H     -10.8247312041    -1.9848587892    -1.8190969445
   75      H      15.5868344173     0.3431340406     0.8943755214
   76      H     -15.8608636559    -2.0144946062     0.5317323858
   77      H       8.9332873605     0.5957732558    -0.3329570230
   78      H      -8.9450414896    -0.4918665814     0.3741286420
   79      H       8.8044875732    -1.8969518920     2.5802352488
   80      H       8.6764690044    -2.9498133311     1.1672302639
   81      H       7.2211276644    -2.5528267564     2.1080502815
   82      H      -8.6805544019     3.0162151581    -1.1726538633
   83      H      -8.5889453028     1.9554681816    -2.5826772257
   84      H      -7.1076125803     2.6896976191    -1.9317640240
   85      H       6.7233665213     0.4498700895    -0.1275584754
   86      H      -6.7203211106    -0.3118147406     0.3242478570
   87      H       5.3955127556    -1.7982603321     1.5747959651
   88      H      -5.3235313803     1.9330026362    -1.3262895232
   89      H       4.3550567434     0.5438225386    -0.1409255621
   90      H      -4.3399595665    -0.3741707344     0.4678755336
   91      H       3.2138335095    -2.8489943309     1.3031022656
   92      H       3.2947216842    -1.7878214912     2.7139711127
   93      H       1.7215418961    -2.1590090085     1.9776459647
   94      H      -3.2018416538     3.0089653122    -0.9776010005
   95      H      -3.1769685818     1.9313133159    -2.3780646036
   96      H      -1.6574981992     2.3525054731    -1.5609664309
   97      H       2.1536626472     0.7992470743    -0.3233054056
   98      H      -2.1320800188    -0.6161815782     0.7169710918
   99      H       0.1824858818    -1.1300784792     1.1297210869
  100      H      -0.1453239690     1.3109043227    -0.7178115870
 ----------------------------------------------------------------

   14   -1857.8120016809      6.37e-09  Convergence criterion met
 Total energy in the final basis set =    -1857.8207255420

         TDDFT/TDA Excitation Energies
 ---------------------------------------------------

 Excited state   1: excitation energy (eV) =    2.7086
 Total energy for state  1:                 -1857.72118754 au
    Multiplicity: Singlet
    Trans. Mom.:  8.3103 X  -1.3150 Y   1.0236 Z
    Strength   :     4.7671136953
    D(  163) --> V(    2) amplitude =  0.2147
    D(  164) --> V(    1) amplitude =  0.9661

 Excited state   2: excitation energy (eV) =    3.8786
 Total energy for state  2:                 -1857.67819128 au
    Multiplicity: Singlet
    Trans. Mom.:  0.0188 X   0.0079 Y   0.0798 Z
    Strength   :     0.0006446432
    D(  162) --> V(    2) amplitude = -0.2261
    D(  163) --> V(    1) amplitude =  0.9082
    D(  164) --> V(    2) amplitude = -0.2793

 Excited state   3: excitation energy (eV) =    4.1035
 Total energy for state  3:                 -1857.66992527 au
    Multiplicity: Singlet
    Trans. Mom.: -0.0137 X   0.0252 Y   0.1591 Z
    Strength   :     0.0026268158
    D(  163) --> V(    1) amplitude =  0.3000
    D(  164) --> V(    2) amplitude =  0.9138

 Excited state   4: excitation energy (eV) =    4.6688
 Total energy for state  4:                 -1857.64915100 au
    Multiplicity: Singlet
    Trans. Mom.: -0.3286 X  -0.2984 Y   0.2398 Z
    Strength   :     0.0291104364
    D(  162) --> V(    1) amplitude =  0.8496
    D(  164) --> V(    3) amplitude = -0.4186

 Excited state   5: excitation energy (eV) =    5.1361
 Total energy for state  5:                 -1857.63197806 au
    Multiplicity: Singlet
    Trans. Mom.: -2.0720 X  -0.6583 Y   0.5514 Z
    Strength   :     0.6330173041
    D(  162) --> V(    1) amplitude =  0.3125
    D(  163) --> V(    2) amplitude = -0.5898
    D(  164) --> V(    3) amplitude =  0.6819

 Excited state   6: excitation energy (eV) =    5.4149
 Total energy for state  6:                 -1857.62173304 au
    Multiplicity: Singlet
    Trans. Mom.:  0.6766 X  -0.5624 Y   0.4290 Z
    Strength   :     0.1271068935
    D(  162) --> V(    1) amplitude =  0.3093
    D(  163) --> V(    2) amplitude =  0.7333
    D(  164) --> V(    3) amplitude =  0.5190

 Excited state   7: excitation energy (eV) =    5.4768
 Total energy for state  7:                 -1857.61945799 au
    Multiplicity: Singlet
    Trans. Mom.:  0.0092 X  -0.0245 Y  -0.0295 Z
    Strength   :     0.0002087003
    D(  155) --> V(    1) amplitude = -0.2222
    D(  161) --> V(    1) amplitude =  0.7800
    D(  164) --> V(    4) amplitude =  0.3876

 Excited state   8: excitation energy (eV) =    5.9730
 Total energy for state  8:                 -1857.60122203 au
    Multiplicity: Singlet
    Trans. Mom.:  0.0776 X   0.1485 Y  -0.1092 Z
    Strength   :     0.0058548921
    D(  154) --> V(    1) amplitude =  0.2456
    D(  157) --> V(    1) amplitude = -0.2200
    D(  158) --> V(    1) amplitude =  0.6196
    D(  159) --> V(    1) amplitude = -0.3975
    D(  161) --> V(    2) amplitude =  0.3265
    D(  164) --> V(    7) amplitude = -0.2221

 Excited state   9: excitation energy (eV) =    5.9862
 Total energy for state  9:                 -1857.60073847 au
    Multiplicity: Singlet
    Trans. Mom.: -0.0232 X   0.0145 Y   0.0179 Z
    Strength   :     0.0001564543
    D(  155) --> V(    1) amplitude = -0.2648
    D(  161) --> V(    1) amplitude = -0.2254
    D(  162) --> V(    2) amplitude =  0.5177
    D(  163) --> V(    3) amplitude =  0.4982
    D(  164) --> V(    4) amplitude =  0.4177

 Excited state  10: excitation energy (eV) =    6.0679
 Total energy for state 10:                 -1857.59773549 au
    Multiplicity: Singlet
    Trans. Mom.: -0.0457 X   0.0600 Y   0.0377 Z
    Strength   :     0.0010578806
    D(  156) --> V(    1) amplitude =  0.5033
    D(  156) --> V(    2) amplitude = -0.3253
    D(  160) --> V(    1) amplitude =  0.5783
    D(  160) --> V(    2) amplitude = -0.3223

 Excited state  11: excitation energy (eV) =    6.0781
 Total energy for state 11:                 -1857.59736006 au
    Multiplicity: Singlet
    Trans. Mom.: -0.0440 X  -0.0439 Y  -0.0576 Z
    Strength   :     0.0010706792
    D(  157) --> V(    1) amplitude =  0.4687
    D(  157) --> V(    2) amplitude =  0.3252
    D(  158) --> V(    1) amplitude =  0.4415
    D(  159) --> V(    1) amplitude =  0.4106
    D(  159) --> V(    2) amplitude =  0.2618

 Excited state  12: excitation energy (eV) =    6.1784
 Total energy for state 12:                 -1857.59367325 au
    Multiplicity: Singlet
    Trans. Mom.: -0.0029 X  -0.0351 Y  -0.0646 Z
    Strength   :     0.0008194615
    D(  155) --> V(    1) amplitude =  0.2486
    D(  158) --> V(    2) amplitude =  0.2164
    D(  161) --> V(    1) amplitude =  0.3907
    D(  162) --> V(    2) amplitude =  0.6857
    D(  164) --> V(    4) amplitude = -0.2871

 Excited state  13: excitation energy (eV) =    6.2975
 Total energy for state 13:                 -1857.58929548 au
    Multiplicity: Singlet
    Trans. Mom.: -0.0026 X  -0.0428 Y  -0.0676 Z
    Strength   :     0.0009886668
    D(  153) --> V(    1) amplitude =  0.3029
    D(  155) --> V(    1) amplitude =  0.5442
    D(  163) --> V(    3) amplitude =  0.4614

 Excited state  14: excitation energy (eV) =    6.4176
 Total energy for state 14:                 -1857.58488175 au
    Multiplicity: Singlet
    Trans. Mom.: -0.0067 X   0.0121 Y   0.0051 Z
    Strength   :     0.0000343744
    D(  163) --> V(    3) amplitude = -0.5884
    D(  164) --> V(    4) amplitude =  0.6415

 Excited state  15: excitation energy (eV) =    6.4373
 Total energy for state 15:                 -1857.58415942 au
    Multiplicity: Singlet
    Trans. Mom.:  0.0138 X   0.0614 Y  -0.0188 Z
    Strength   :     0.0006794743
    D(  145) --> V(    1) amplitude =  0.4965
    D(  160) --> V(    1) amplitude = -0.2175
    D(  164) --> V(    8) amplitude = -0.4424
    D(  164) --> V(    9) amplitude =  0.2430
    D(  164) --> V(   10) amplitude = -0.2216

 ---------------------------------------------------

                    Orbital Energies (a.u.)
 --------------------------------------------------------------

 Alpha MOs
 -- Occupied --
-19.2191 -19.2174 -19.2041 -19.2036 -10.3141 -10.3125 -10.3119 -10.3103
-10.2982 -10.2952 -10.2702 -10.2699 -10.2686 -10.2682 -10.2678 -10.2647
-10.2613 -10.2607 -10.2590 -10.2588 -10.2583 -10.2582 -10.2580 -10.2579
-10.2566 -10.2564 -10.2564 -10.2558 -10.2557 -10.2551 -10.2488 -10.2486
-10.2486 -10.2484 -10.2483 -10.2482 -10.2451 -10.2451 -10.2429 -10.2416
-10.2414 -10.2391 -10.2385 -10.2365  -1.1546  -1.1528  -1.0953  -1.0953
 -0.9217  -0.9177  -0.9106  -0.9072  -0.9031  -0.8993  -0.8741  -0.8660
 -0.8625  -0.8513  -0.8407  -0.8229  -0.8154  -0.8043  -0.8013  -0.7794
 -0.7627  -0.7624  -0.7581  -0.7566  -0.7558  -0.7541  -0.7494  -0.7410
 -0.7317  -0.7056  -0.6890  -0.6769  -0.6610  -0.6458  -0.6423  -0.6393
 -0.6190  -0.6131  -0.6018  -0.5990  -0.5979  -0.5915  -0.5909  -0.5789
 -0.5706  -0.5647  -0.5603  -0.5535  -0.5463  -0.5436  -0.5408  -0.5342
 -0.5267  -0.5252  -0.5138  -0.5096  -0.5066  -0.5032  -0.5006  -0.4975
 -0.4912  -0.4861  -0.4847  -0.4808  -0.4801  -0.4796  -0.4776  -0.4767
 -0.4761  -0.4757  -0.4640  -0.4623  -0.4610  -0.4565  -0.4544  -0.4533
 -0.4467  -0.4430  -0.4389  -0.4383  -0.4350  -0.4317  -0.4291  -0.4251
 -0.4223  -0.4214  -0.4205  -0.4173  -0.4170  -0.4153  -0.4137  -0.4112
 -0.4098  -0.4061  -0.4044  -0.4040  -0.4007  -0.3979  -0.3949  -0.3929
 -0.3919  -0.3878  -0.3851  -0.3827  -0.3793  -0.3785  -0.3715  -0.3698
 -0.3628  -0.3557  -0.3421  -0.3344  -0.3326  -0.3293  -0.3225  -0.3224
 -0.3131  -0.2805  -0.2464  -0.2090

                    Cartesian Multipole Moments
 -----------------------------------------------------------------
    Charge (ESU x 10^10)
                -0.0000
    Dipole Moment (Debye)
         X       1.3555      Y       1.7523      Z      -0.2624
       Tot       2.2308
    Quadrupole Moments (Debye-Ang)
        XX    -197.6485     XY       6.2871     YY    -256.3054
        XZ      58.7556     YZ      -5.0002     ZZ    -265.8341

 Total job time:  4743.99s(wall), 35423.44s(cpu)
        *  Thank you very much for using Q-Chem.  Have a nice day.  *
